 Gaussian 09, Revision C.01,
 Gaussian 09:  EM64L-G09RevC.01 23-Sep-2011

 ---------------
 #HF/6-31G** opt
 ---------------

 99/9=1/99;
 ------------------
 optimisation of N2
 ------------------
 Charge =  0 Multiplicity = 1

 SCF Done:  E(RHF) =  -108.917474739     A.U. after    8 cycles
 SCF Done:  E(RHF) =  -108.942855675     A.U. after    9 cycles
 SCF Done:  E(RHF) =  -108.943949326     A.U. after    7 cycles
 SCF Done:  E(RHF) =  -108.943949471     A.U. after    6 cycles
 Optimization completed.
    -- Stationary point found.

                         Standard orientation:
 ---------------------------------------------------------------------
 Center     Atomic      Atomic             Coordinates (Angstroms)
 Number     Number       Type             X           Y           Z
 ---------------------------------------------------------------------
      1          7           0        0.000000    0.000000    0.539187
      2          7           0        0.000000    0.000000   -0.539187
 ---------------------------------------------------------------------

 The electronic state is 1-SGG.
 Alpha  occ. eigenvalues --  -15.69064 -15.68681  -1.48819  -0.76995  -0.63159
 Alpha  occ. eigenvalues --   -0.62012  -0.62012
 Alpha virt. eigenvalues --    0.18076   0.18076   0.59135   0.76911   0.83104
 Alpha virt. eigenvalues --    0.83104   0.83858   1.01939   1.01939   1.09372
 Alpha virt. eigenvalues --    1.51670   1.71184   1.71184   1.87360   1.87360

 Mulliken atomic charges:
              1
     1  N    0.000000
     2  N    0.000000
 Sum of Mulliken atomic charges =   0.00000

 Dipole moment (field-independent basis, Debye):
    X=              0.0000    Y=              0.0000    Z=              0.0000  Tot=              0.0000
 Quadrupole moment (field-independent basis, Debye-Ang):
   XX=            -10.1824   YY=            -10.1824   ZZ=            -11.6707
   XY=              0.0000   XZ=              0.0000   YZ=              0.0000

 Normal termination of Gaussian 09 at Wed Jan 13 11:14:56 2021.
