 Gaussian 09, Revision C.01,
 Gaussian 09:  EM64L-G09RevC.01 23-Sep-2011

 ---------------
 #HF/6-31g** opt
 ---------------

 99/9=1/99;
 --
 O2
 --
 Charge =  0 Multiplicity = 1

 SCF Done:  E(RHF) =  -149.444014196     A.U. after    9 cycles
 SCF Done:  E(RHF) =  -149.524088867     A.U. after   10 cycles
 SCF Done:  E(RHF) =  -149.532914941     A.U. after   10 cycles
 SCF Done:  E(RHF) =  -149.532996970     A.U. after    7 cycles
 Optimization completed.
    -- Stationary point found.

                         Standard orientation:
 ---------------------------------------------------------------------
 Center     Atomic      Atomic             Coordinates (Angstroms)
 Number     Number       Type             X           Y           Z
 ---------------------------------------------------------------------
      1          8           0        0.000000    0.000000    0.582777
      2          8           0        0.000000    0.000000   -0.582777
 ---------------------------------------------------------------------

 Unable to determine electronic state:  an orbital has unidentified symmetry.
 Alpha  occ. eigenvalues --  -20.74491 -20.74380  -1.69722  -1.08527  -0.78336
 Alpha  occ. eigenvalues --   -0.74820  -0.67152  -0.44989
 Alpha virt. eigenvalues --    0.05022   0.51462   0.87125   0.98121   1.05713
 Alpha virt. eigenvalues --    1.07140   1.08367   1.17518   1.20736   1.53952
 Alpha virt. eigenvalues --    1.79027   1.79037   1.80799   1.81221   2.25137

 Mulliken atomic charges:
              1
     1  O    0.000000
     2  O    0.000000
 Sum of Mulliken atomic charges =   0.00000

 Dipole moment (field-independent basis, Debye):
    X=              0.0000    Y=              0.0000    Z=              0.0000  Tot=              0.0000
 Quadrupole moment (field-independent basis, Debye-Ang):
   XX=             -9.0609   YY=            -10.7061   ZZ=            -10.4361
   XY=              0.0000   XZ=              0.0000   YZ=              0.0000

 Normal termination of Gaussian 09 at Wed Jan 13 13:09:37 2021.
